# vtk DataFile Version 3.0
3D Tetrahedral Example
ASCII
DATASET UNSTRUCTURED_GRID

POINTS 8 float
0 0 0
1 0 0
1 1 0
0 1 0
0 0 1
1 0 1
1 1 1
0 1 1

CELLS 5 25
4 0 1 3 4
4 1 2 3 6
4 1 3 4 6
4 3 4 6 7
4 1 4 5 6

CELL_TYPES 5
10
10
10
10
10

POINT_DATA 8
SCALARS pressure float 1
LOOKUP_TABLE default
100
120
115
110
130
125
140
135

VECTORS velocity float
1.0 0.0 0.0
1.0 0.2 0.0
0.8 0.5 0.1
0.9 0.3 0.0
0.5 0.0 0.7
0.6 0.1 0.8
0.7 0.2 0.9
0.4 0.3 0.6